BEGIN_CFG
 Size
    9
 Supercell
         5.663742      0.000000      0.000000
        -1.799371      6.794059      0.000000
         1.758510      0.465756      4.075563
 AtomData:  id type       cartes_x      cartes_y      cartes_z           fx          fy          fz
             1    0       3.970135      6.236601      1.375703     0.006466    0.011054   -0.004053
             2    1       4.233960      1.561730      1.796080    -0.011817    0.024599    0.002288
             3    1       0.995078      2.043077      3.138610     0.004725   -0.018101    0.000029
             4    1       2.532658      4.119863      2.237853    -0.000846   -0.004832    0.000918
             5    1       4.883038      4.057490      3.674641     0.000537   -0.010337    0.000950
             6    1       0.778785      6.334773      2.741503     0.014717   -0.000720   -0.006268
             7    2       1.571077      1.381412      0.521908    -0.006818   -0.004114    0.003412
             8    2      -0.222029      4.108122      0.983997    -0.002490    0.004746    0.000532
             9    2       3.707953      6.455993      3.907535    -0.004474   -0.002296    0.002192
 Energy
        -30.472778930000
 PlusStress:  xx          yy          zz          yz          xz          xy
        -0.04428    -0.11824    -0.01042     0.01142     0.01801     0.00450
 Feature   EFS_by	VASP
 Feature   conf_id	  bcc21025
 Feature   mindist	2.554799
END_CFG

BEGIN_CFG
 Size
    8
 Supercell
         4.441987      0.000000      0.000000
        -2.220991      3.846879      0.000000
        -2.220971     -1.282246      7.917730
 AtomData:  id type       cartes_x      cartes_y      cartes_z           fx          fy          fz
             1    0       0.000033      2.564650      7.435706     0.000000    0.000000   -0.001535
             2    0       0.000000      2.564582      2.461455    -0.000000   -0.000000    0.001535
             3    1       2.220999      1.282301      0.989713     0.000000    0.000000    0.000000
             4    1       2.220999      1.282298      3.651152     0.000001   -0.000000    0.008311
             5    1       0.000019      0.000049      6.246000    -0.000001    0.000000   -0.008311
             6    2      -0.000004     -0.000010      2.275338     0.000000   -0.000000    0.011449
             7    2       0.000017      2.564616      4.948580    -0.000000    0.000000    0.000000
             8    2      -2.220974      1.282356      7.621814    -0.000000    0.000000   -0.011449
 Energy
        -32.728057060000
 PlusStress:  xx          yy          zz          yz          xz          xy
        -0.11142    -0.11142    -0.14625    -0.00000    -0.00000    -0.00000
 Feature   EFS_by	VASP
 Feature   conf_id	  fcc4621
 Feature   mindist	2.487125
END_CFG

BEGIN_CFG
 Size
    1
 Supercell
         3.059271      0.000000      0.000000
         1.529585      2.649430      0.000000
         1.529576      0.883125      2.497920
 AtomData:  id type       cartes_x      cartes_y      cartes_z           fx          fy          fz
             1    1       0.000000      0.000000      0.000000     0.000000    0.000000    0.000000
 Energy
         -1.897929270000
 PlusStress:  xx          yy          zz          yz          xz          xy
         0.00294     0.00294     0.00294     0.00000    -0.00000    -0.00000
 Feature   EFS_by	VASP
 Feature   conf_id	  unary_2__A10_POSCAR.orig
 Feature   mindist	3.059266
END_CFG

BEGIN_CFG
 Size
    4
 Supercell
         6.084955      0.000000      0.000000
         0.000000      6.935705      0.000000
        -0.000012      0.000000      5.001002
 AtomData:  id type       cartes_x      cartes_y      cartes_z           fx          fy          fz
             1    1       1.088216      3.467857      3.125624     1.647911    0.000000    0.000000
             2    1       3.475502      0.000000      3.125629    -1.647911    0.000000   -0.000000
             3    2       0.149513      0.000000      0.625126    -0.438243    0.000000    0.000000
             4    2       4.414209      3.467850      0.625127     0.438243    0.000000   -0.000000
 Energy
         -8.314175500000
 PlusStress:  xx          yy          zz          yz          xz          xy
         5.89403    12.48723     1.81840     0.00000    -0.00000     0.00000
 Feature   EFS_by	VASP
 Feature   conf_id	  binary_1158__74_POSCAR.orig
 Feature   mindist	3.723483
END_CFG

BEGIN_CFG
 Size
    4
 Supercell
         4.648204      0.000000      0.000000
        -0.000011      4.648204      0.000000
         2.324080      2.324086      3.286798
 AtomData:  id type       cartes_x      cartes_y      cartes_z           fx          fy          fz
             1    1       4.648181      4.648192      3.286783     0.000000   -0.000000    0.000000
             2    1       4.648218      2.324077      1.643392     0.000000   -0.000000    0.000000
             3    1       2.324066      4.648224      1.643392     0.000000    0.000000    0.000000
             4    2       2.324087      2.324093      3.286796     0.000000    0.000000    0.000000
 Energy
        -11.103004140000
 PlusStress:  xx          yy          zz          yz          xz          xy
        -0.00976    -0.00976    -0.00976    -0.00000    -0.00000     0.00000
 Feature   EFS_by	VASP
 Feature   conf_id	  binary_1617__ICSD_105709.AB_POSCAR.orig
 Feature   mindist	2.846409
END_CFG

BEGIN_CFG
 Size
    2
 Supercell
         3.440639      0.000000      0.000000
         0.000000      3.440639      0.000000
         0.000000      0.000000      3.440639
 AtomData:  id type       cartes_x      cartes_y      cartes_z           fx          fy          fz
             1    1       1.720310      1.720310      1.720310     0.000000    0.000000    0.000000
             2    2       0.000000      0.000000      0.000000     0.000000    0.000000    0.000000
 Energy
         -6.381749730000
 PlusStress:  xx          yy          zz          yz          xz          xy
         0.02389     0.02389     0.02389     0.00000     0.00000     0.00000
 Feature   EFS_by	VASP
 Feature   conf_id	  binary_1944__ICSD_157508.AB_POSCAR.orig
 Feature   mindist	2.979664
END_CFG

BEGIN_CFG
 Size
    6
 Supercell
         7.664020      0.000000      0.000000
         1.215633      4.141920      0.000000
         0.000000      0.000000      4.533123
 AtomData:  id type       cartes_x      cartes_y      cartes_z           fx          fy          fz
             1    1       6.455289      0.354753      3.399850     0.003213   -0.000943    0.000000
             2    1       2.424363      3.787161      1.133280    -0.003213    0.000943    0.000000
             3    2       1.571536      1.788110      3.399850    -0.002255    0.000662    0.000000
             4    2       7.308116      2.353804      1.133280     0.002255   -0.000662   -0.000000
             5    2       4.490963      3.180624      3.399850    -0.019482    0.005718    0.000000
             6    2       4.388688      0.961290      1.133280     0.019482   -0.005718    0.000000
 Energy
        -20.279248640000
 PlusStress:  xx          yy          zz          yz          xz          xy
        -0.06008    -0.07010    -0.06238     0.00000     0.00000    -0.00322
 Feature   EFS_by	VASP
 Feature   conf_id	  binary_2073__ICSD_168418.AB_POSCAR.orig
 Feature   mindist	3.028580
END_CFG

BEGIN_CFG
 Size
    8
 Supercell
         4.056371      0.000000      0.000000
         0.000000      5.263443      0.000000
         0.000000      0.000000      5.988722
 AtomData:  id type       cartes_x      cartes_y      cartes_z           fx          fy          fz
             1    0       3.042270      1.830830      0.160870     0.000000   -0.004241    0.006999
             2    0       1.014090      4.462560      2.833500     0.000000   -0.004241   -0.006999
             3    0       1.014090      3.432610      5.827860    -0.000000    0.004241   -0.006999
             4    0       3.042270      0.800890      3.155230     0.000000    0.004241    0.006999
             5    2       3.042270      3.323190      4.034540     0.000000    0.004767    0.002922
             6    2       1.014090      0.691470      4.948540    -0.000000    0.004767   -0.002922
             7    2       1.014090      1.940250      1.954180     0.000000   -0.004767   -0.002922
             8    2       3.042270      4.571970      1.040170     0.000000   -0.004767    0.002922
 Energy
        -43.354352810000
 PlusStress:  xx          yy          zz          yz          xz          xy
        -0.01288    -0.00803    -0.05809     0.00000     0.00000     0.00000
 Feature   EFS_by	VASP
 Feature   conf_id	  binary_2462__ICSD_280620.AB_POSCAR.orig
 Feature   mindist	2.588535
END_CFG

BEGIN_CFG
 Size
    5
 Supercell
         3.132371      0.000000      0.000000
        -0.000012      6.129592      0.000000
         0.000012     -0.000014      6.129592
 AtomData:  id type       cartes_x      cartes_y      cartes_z           fx          fy          fz
             1    0       3.132376     -0.000013      6.129591     0.000000    0.000000    0.000000
             2    2       1.566182      1.568278      4.561304     0.000000    0.002853   -0.002853
             3    2       1.566183      4.561305      1.568283    -0.000000   -0.002853    0.002853
             4    2       1.566185      1.568283      1.568287    -0.000000    0.002852    0.002852
             5    2       1.566185      4.561301      4.561313     0.000000   -0.002852   -0.002852
 Energy
        -22.370845300000
 PlusStress:  xx          yy          zz          yz          xz          xy
        -0.01483    -0.03377    -0.03377    -0.00000    -0.00000     0.00000
 Feature   EFS_by	VASP
 Feature   conf_id	  binary_3023__ICSD_54994.AB_POSCAR.orig
 Feature   mindist	2.715126
END_CFG

BEGIN_CFG
 Size
    8
 Supercell
         5.295947      0.000000      0.000000
         2.647971      4.586426      0.000000
         0.000000      0.000000      4.172135
 AtomData:  id type       cartes_x      cartes_y      cartes_z           fx          fy          fz
             1    0       2.647970      3.153921      3.129100     0.000000   -0.011031    0.000000
             2    0       1.240581      0.716250      3.129100     0.009553    0.005516    0.000000
             3    0       3.888551      3.870172      1.043030     0.009553   -0.005516    0.000000
             4    0       4.055360      0.716251      3.129100    -0.009553    0.005516    0.000000
             5    0       6.703347      3.870182      1.043030    -0.009553   -0.005516    0.000000
             6    0       5.295941      1.432501      1.043030    -0.000000    0.011031    0.000000
             7    2       2.647967      1.528806      1.043030     0.000000   -0.000000    0.000000
             8    2       5.295944      3.057617      3.129100     0.000000   -0.000000    0.000000
 Energy
        -48.866780000000
 PlusStress:  xx          yy          zz          yz          xz          xy
         0.11671     0.11671     0.13362     0.00000     0.00000     0.00000
 Feature   EFS_by	VASP
 Feature   conf_id	  binary_644__272_POSCAR.orig
 Feature   mindist	2.481150
END_CFG

BEGIN_CFG
 Size
    6
 Supercell
         3.328675      0.000000      0.000000
         0.000000      3.328675      0.000000
        -0.000000      0.000000     13.731888
 AtomData:  id type       cartes_x      cartes_y      cartes_z           fx          fy          fz
             1    1       1.664330      1.664330      0.000000    -0.000000    0.000000    0.000000
             2    2       0.000000      0.000000     11.807610     0.000000    0.000000   -0.013182
             3    2       0.000000      0.000000      1.924310     0.000000    0.000000    0.013182
             4    2       1.664330      1.664330      9.369780    -0.000000    0.000000    0.001626
             5    2       1.664330      1.664330      4.362090     0.000000    0.000000   -0.001626
             6    2       0.000000      0.000000      6.865930    -0.000000    0.000000    0.000000
 Energy
        -21.424974750000
 PlusStress:  xx          yy          zz          yz          xz          xy
         0.01657     0.01657     0.02480     0.00000     0.00000     0.00000
 Feature   EFS_by	VASP
 Feature   conf_id	  binary_855__477_GGA_POSCAR.orig
 Feature   mindist	3.040203
END_CFG

BEGIN_CFG
 Size
    2
 Supercell
         4.225463      0.000000      0.000000
         0.704142      2.335560      0.000000
        -0.000002      1.273924      2.080334
 AtomData:  id type       cartes_x      cartes_y      cartes_z           fx          fy          fz
             1    0       3.521171      1.486262      0.520083     0.000000    0.000000    0.000000
             2    0       1.408446      2.123224      1.560250     0.000000   -0.000000    0.000000
 Energy
        -13.678329390000
 PlusStress:  xx          yy          zz          yz          xz          xy
         0.08163     0.08322     0.08333     0.00010    -0.00033     0.00052
 Feature   EFS_by	VASP
 Feature   conf_id	  unary_1249__A7.A_POSCAR.orig
 Feature   mindist	2.439397
END_CFG

BEGIN_CFG
 Size
    6
 Supercell
         2.442339      0.000000      0.000000
         1.221160      2.115122      0.000000
        -0.000015     -0.000025     11.966667
 AtomData:  id type       cartes_x      cartes_y      cartes_z           fx          fy          fz
             1    0       1.221156      2.115116      2.992660    -0.000000    0.000000    0.000000
             2    0       1.221149      2.115103      8.975980     0.000000    0.000000    0.000000
             3    0       2.442327      1.410065      4.987103     0.000000    0.000000    0.000000
             4    0       2.442320      1.410052     10.970413     0.000000    0.000000    0.000000
             5    0       1.221160      0.705036      0.998223     0.000000   -0.000000    0.000000
             6    0       1.221152      0.705023      6.981543     0.000000    0.000000    0.000000
 Energy
        -41.034523870000
 PlusStress:  xx          yy          zz          yz          xz          xy
        -0.10502    -0.10502    -0.06225    -0.00000    -0.00000     0.00000
 Feature   EFS_by	VASP
 Feature   conf_id	  unary_751__307_POSCAR.orig
 Feature   mindist	2.442329
END_CFG

BEGIN_CFG
 Size
    7
 Supercell
         7.714142      0.000000      0.000000
         0.000000      4.476801      0.000000
         1.299023      2.238400      3.652928
 AtomData:  id type       cartes_x      cartes_y      cartes_z           fx          fy          fz
             1    0       2.532198      4.476801      1.842772     0.002555    0.000000   -0.000909
             2    0       6.480960      2.238400      1.810162    -0.002555    0.000000    0.000909
             3    1       1.299040      2.238400      3.652918     0.000000    0.000000   -0.000000
             4    2       5.066255      4.476801      0.941636     0.003187    0.000000   -0.001133
             5    2       3.946899      2.238400      2.711313    -0.003187    0.000000    0.001133
             6    2       7.623683      4.476801      2.775428    -0.001979   -0.000000    0.000704
             7    2       1.389457      2.238400      0.877517     0.001979    0.000000   -0.000704
 Energy
        -32.008418210000
 PlusStress:  xx          yy          zz          yz          xz          xy
        -0.05000    -0.10208    -0.09549     0.00000    -0.01852     0.00000
 Feature   EFS_by	VASP
 Feature   conf_id	  ternary_1574__ICSD_424311.BAC_POSCAR.orig
 Feature   mindist	2.689515
END_CFG

BEGIN_CFG
 Size
    8
 Supercell
         4.629820      0.000000      0.000000
         0.000005      6.619679      0.000000
        -0.000003     -0.000035      4.629798
 AtomData:  id type       cartes_x      cartes_y      cartes_z           fx          fy          fz
             1    1       0.000007      6.205954      0.578733     0.000000   -0.000000    0.000000
             2    1       2.314885      1.241182      0.578724     0.000000   -0.000000    0.000000
             3    1       0.000015      1.241171      2.893621     0.000000   -0.000000    0.000000
             4    1       2.314906      2.896076      2.893619     0.000000   -0.000000    0.000000
             5    1       2.314908      4.551041      0.578725     0.000000   -0.000000    0.000000
             6    1       0.000005      4.550994      2.893635     0.000000   -0.000000    0.000000
             7    2       4.629801      2.896107      0.578720    -0.000000    0.000000    0.000000
             8    2       2.314923      6.205943      2.893623     0.000000    0.000000   -0.000000
 Energy
        -22.206427250000
 PlusStress:  xx          yy          zz          yz          xz          xy
         0.00175    -0.00983     0.00174    -0.00000     0.00000    -0.00000
 Feature   EFS_by	VASP
 Feature   conf_id	  fcc5990
 Feature   mindist	2.845591
END_CFG

BEGIN_CFG
 Size
    10
 Supercell
         4.359056      0.000000      0.000000
        -0.000042      8.245925      0.000000
         2.179499      0.638276      5.144176
 AtomData:  id type       cartes_x      cartes_y      cartes_z           fx          fy          fz
             1    0       2.906007      0.638293      5.144162     0.000000   -0.000000    0.000000
             2    1       5.085535      5.264415      1.854259     0.000001   -0.046876   -0.009692
             3    1       2.905989      3.619779      3.289973    -0.000001    0.046876    0.009692
             4    1       2.906004      4.122959      0.000050     0.000000    0.000000    0.000000
             5    1       2.906034      1.006065      2.383304    -0.000000   -0.043669    0.017114
             6    1       5.085527      7.878125      2.760833     0.000000    0.043669   -0.017114
             7    2       5.085534      1.967338      4.328913    -0.000000    0.034234    0.012526
             8    2       2.906008      6.916874      0.815226     0.000000   -0.034234   -0.012526
             9    2       2.905981      6.443878      3.946652     0.000000    0.024154   -0.027529
            10    2       0.726492      2.440319      1.197544    -0.000000   -0.024154    0.027529
 Energy
        -34.416326600000
 PlusStress:  xx          yy          zz          yz          xz          xy
        -0.20558    -0.11301    -0.05178    -0.01398    -0.00001    -0.00000
 Feature   EFS_by	VASP
 Feature   conf_id	  hcp36362
 Feature   mindist	2.603910
END_CFG

BEGIN_CFG
 Size
    3
 Supercell
         3.373545      0.000000      0.000000
         1.686770      2.921590      0.000000
         0.000011      0.000019      8.435780
 AtomData:  id type       cartes_x      cartes_y      cartes_z           fx          fy          fz
             1    2       2.811262      2.921567      2.811739     0.000163    0.000094   -0.000000
             2    2       2.811280      0.973878      5.623655     0.000000    0.000000    0.000000
             3    2       1.124559      1.947773      8.435605    -0.000163   -0.000094    0.000000
 Energy
        -11.356025750000
 PlusStress:  xx          yy          zz          yz          xz          xy
         0.02022     0.02022     0.02525     0.00000     0.00000     0.00000
 Feature   EFS_by	VASP
 Feature   conf_id	  unary_30__ICSD_246657.A_POSCAR.orig
 Feature   mindist	3.373545
END_CFG

BEGIN_CFG
 Size
    3
 Supercell
         5.105953      0.000000      0.000000
         2.441803      4.484239      0.000000
         1.716379     -2.888856      2.498793
 AtomData:  id type       cartes_x      cartes_y      cartes_z           fx          fy          fz
             1    1       2.537675      1.507695      0.000021    -0.020649   -0.012268   -0.000000
             2    1       6.726469      0.087685      2.498781     0.020649    0.012268    0.000000
             3    2       0.000013     -0.000002      0.000006     0.000000    0.000000    0.000000
 Energy
         -8.728047880000
 PlusStress:  xx          yy          zz          yz          xz          xy
        -0.00053     0.03118     0.01093    -0.04202     0.02497    -0.02912
 Feature   EFS_by	VASP
 Feature   conf_id	  binary_1575__ICSD_105441.AB_POSCAR.orig
 Feature   mindist	2.875821
END_CFG

BEGIN_CFG
 Size
    6
 Supercell
         3.794544      0.000000      0.000000
         0.000012      3.794544      0.000000
        -1.897262     -1.897256      5.997566
 AtomData:  id type       cartes_x      cartes_y      cartes_z           fx          fy          fz
             1    0       1.897273      1.897267      1.575045    -0.000000   -0.000000   -0.023916
             2    0       0.000013      0.000013      4.546859     0.000000    0.000000    0.023916
             3    0       0.000006      1.897271      0.062171     0.000000    0.000000    0.000000
             4    0       1.897271      0.000000      0.062171     0.000000    0.000000    0.000000
             5    2       1.897293      1.897287      4.170661    -0.000000   -0.000000   -0.041406
             6    2       0.000003      0.000003      1.951243     0.000000    0.000000    0.041406
 Energy
        -34.889482220000
 PlusStress:  xx          yy          zz          yz          xz          xy
        -0.13215    -0.13215    -0.00052     0.00000     0.00000    -0.00000
 Feature   EFS_by	VASP
 Feature   conf_id	  binary_1901__ICSD_154.AB_POSCAR.orig
 Feature   mindist	2.426605
END_CFG

BEGIN_CFG
 Size
    4
 Supercell
         5.073921      0.000000      0.000000
         1.206155      3.284061      0.000000
         0.000000      0.000000      3.898564
 AtomData:  id type       cartes_x      cartes_y      cartes_z           fx          fy          fz
             1    0       4.420193      0.240102      2.923930     0.004890   -0.001796    0.000000
             2    0       1.859885      3.043966      0.974640    -0.004890    0.001796    0.000000
             3    2       1.913117      1.160890      2.923930    -0.000037    0.000013    0.000000
             4    2       4.366961      2.123179      0.974640     0.000037   -0.000013    0.000000
 Energy
        -21.525919600000
 PlusStress:  xx          yy          zz          yz          xz          xy
         0.11890     0.14611     0.10464     0.00000     0.00000     0.01155
 Feature   EFS_by	VASP
 Feature   conf_id	  binary_3479__ICSD_641721.AB_POSCAR.orig
 Feature   mindist	2.395768
END_CFG

BEGIN_CFG
 Size
    6
 Supercell
         4.865635      0.000000      0.000000
        -2.432813      4.213764      0.000000
         0.000184     -0.000298      5.957814
 AtomData:  id type       cartes_x      cartes_y      cartes_z           fx          fy          fz
             1    1       1.621941      2.809121      1.985784     0.000000    0.000000    0.000000
             2    1      -0.810778      4.213550      3.971725     0.000000    0.000000    0.000000
             3    1       4.054855      1.404279      5.957621     0.000000    0.000000    0.000000
             4    2       1.622039      2.808900      4.964682     0.000000    0.000000    0.000000
             5    2       1.621883     -0.000035      0.992798    -0.000000    0.000000    0.000000
             6    2      -0.810822      1.404456      2.978741     0.000000   -0.000000    0.000000
 Energy
        -19.162080100000
 PlusStress:  xx          yy          zz          yz          xz          xy
         0.06064     0.06064     0.04817     0.00000    -0.00000     0.00000
 Feature   EFS_by	VASP
 Feature   conf_id	  binary_3573__ICSD_67862.AB_POSCAR.orig
 Feature   mindist	2.978880
END_CFG

BEGIN_CFG
 Size
    6
 Supercell
         5.732980      0.000000      0.000000
         1.145360      3.438139      0.000000
         0.000000      0.000000      3.614245
 AtomData:  id type       cartes_x      cartes_y      cartes_z           fx          fy          fz
             1    0       3.270346      2.730235      1.807120    -0.007401    0.002466    0.000000
             2    0       4.771993      2.229986      0.000000     0.005272   -0.001756    0.000000
             3    0       0.859380      1.623560      1.807120     0.000000    0.000000    0.000000
             4    0       2.679708      1.017148      0.000000    -0.005272    0.001756    0.000000
             5    0       4.181362      0.516886      1.807120     0.007401   -0.002466    0.000000
             6    2       1.432036      3.342627      0.000000     0.000000    0.000000    0.000000
 Energy
        -37.902068850000
 PlusStress:  xx          yy          zz          yz          xz          xy
         0.04662     0.08798     0.04192     0.00000     0.00000     0.01550
 Feature   EFS_by	VASP
 Feature   conf_id	  binary_878__480_POSCAR.orig
 Feature   mindist	2.393490
END_CFG

BEGIN_CFG
 Size
    6
 Supercell
         3.059290      0.000000      0.000000
        -1.529635      2.649429      0.000000
         0.000086     -0.000050     14.987500
 AtomData:  id type       cartes_x      cartes_y      cartes_z           fx          fy          fz
             1    1       3.059311     -0.000012      3.748123     0.000000    0.000000    0.000000
             2    1       3.059352     -0.000036     11.241913     0.000000    0.000000    0.000000
             3    1       0.000041      1.766266      6.246036     0.000000    0.000000   -0.000000
             4    1       0.000083      1.766242     13.739806     0.000000   -0.000000    0.000000
             5    1       1.529655      0.883139      1.250204     0.000000    0.000000    0.000000
             6    1       1.529697      0.883115      8.743974     0.000000    0.000000   -0.000000
 Energy
        -11.386706840000
 PlusStress:  xx          yy          zz          yz          xz          xy
         0.00898     0.00898     0.02656    -0.00000     0.00000    -0.00000
 Feature   EFS_by	VASP
 Feature   conf_id	  unary_752__307_POSCAR.orig
 Feature   mindist	3.059282
END_CFG

BEGIN_CFG
 Size
    4
 Supercell
         4.336977      0.000000      0.000000
         2.168488      3.755932      0.000000
         2.168488      1.251977      3.541127
 AtomData:  id type       cartes_x      cartes_y      cartes_z           fx          fy          fz
             1    0       4.336983      2.503958      1.770566     0.000000    0.000000   -0.000000
             2    1       6.505460      1.251987      3.541120     0.000000    0.000000   -0.000000
             3    1       2.168484      1.251975      0.885280     0.000000    0.000000   -0.000000
             4    2       6.505453      3.755925      2.655840     0.000000    0.000000    0.000000
 Energy
        -15.359232150000
 PlusStress:  xx          yy          zz          yz          xz          xy
         0.01470     0.01470     0.01470    -0.00000     0.00000     0.00000
 Feature   EFS_by	VASP
 Feature   conf_id	  ternary_450__ICSD_160708.CBA_POSCAR.orig
 Feature   mindist	2.655823
END_CFG

BEGIN_CFG
 Size
    10
 Supercell
         3.525993      0.000000      0.000000
         0.000030     12.267422      0.000000
         0.000007      0.945516      4.722816
 AtomData:  id type       cartes_x      cartes_y      cartes_z           fx          fy          fz
             1    1       2.997094      0.534980      0.629704     0.000000    0.000000    0.000000
             2    1       2.997109      6.198361      4.407998     0.000000    0.000000    0.000000
             3    1       2.997090      3.366677      2.518861     0.000000    0.000000    0.000000
             4    1       2.997118      8.084542      1.574230     0.000000    0.000000    0.000000
             5    1       2.997127     10.916223      3.463440     0.000000    0.000000    0.000000
             6    2       1.234129     10.443480      1.102007     0.000000    0.000000   -0.000000
             7    2       1.234111      8.557275      3.935631     0.000000    0.000000    0.000000
             8    2       1.234089      2.893923      0.157474     0.000000   -0.000000    0.000000
             9    2       1.234101      1.007733      2.991092     0.000000    0.000000    0.000000
            10    2       1.234096      5.725618      2.046564    -0.000000    0.000000    0.000000
 Energy
        -31.923600790000
 PlusStress:  xx          yy          zz          yz          xz          xy
         0.04011     0.02928    -0.00264    -0.00666     0.00000     0.00000
 Feature   EFS_by	VASP
 Feature   conf_id	  hcp27227
 Feature   mindist	2.982561
END_CFG

BEGIN_CFG
 Size
    2
 Supercell
         3.050993      0.000000      0.000000
        -1.525480      2.642247      0.000000
         0.000000      0.000000      5.019773
 AtomData:  id type       cartes_x      cartes_y      cartes_z           fx          fy          fz
             1    1       2.288229      0.440380      3.764820    -0.000000    0.000000    0.000000
             2    1      -0.762721      2.201859      1.254940     0.000000    0.000000    0.000000
 Energy
         -3.796138490000
 PlusStress:  xx          yy          zz          yz          xz          xy
         0.00121     0.00121     0.02015     0.00000     0.00000     0.00000
 Feature   EFS_by	VASP
 Feature   conf_id	  unary_17__Ce1_ICSD_41822_POSCAR.orig
 Feature   mindist	3.050993
END_CFG

BEGIN_CFG
 Size
    3
 Supercell
         8.502701      0.000000      0.000000
        -0.000005      3.398037      0.000000
        -0.678998     -1.699009      2.863387
 AtomData:  id type       cartes_x      cartes_y      cartes_z           fx          fy          fz
             1    2       7.823653      1.699019      2.863381     0.000000    0.000000   -0.000000
             2    2       5.383727      0.000001      1.276659     0.006561   -0.000000    0.001556
             3    2       2.439988      1.699026      1.586733    -0.006561    0.000000   -0.001556
 Energy
        -11.348851090000
 PlusStress:  xx          yy          zz          yz          xz          xy
        -0.00661     0.00004    -0.00033    -0.00000    -0.00157    -0.00000
 Feature   EFS_by	VASP