BEGIN_CFG
 Size
    3
 Supercell
         3.503313      0.000000      0.000000
         0.000002      3.503313      0.000000
        -1.751646     -1.751645      4.563459
 AtomData:  id type       cartes_x      cartes_y      cartes_z           fx          fy          fz
             1    1       0.000004      0.000004      0.037810    -0.000000   -0.000000    0.002461
             2    1       1.751659      1.751658      1.483330     0.000000    0.000000   -0.002461
             3    2       0.000014      0.000014      3.042300     0.000000    0.000000   -0.000000
 Energy
         -8.779300850000
 PlusStress:  xx          yy          zz          yz          xz          xy
        -0.00501    -0.00501     0.00864     0.00000     0.00000    -0.00000
 Feature   EFS_by	VASP
 Feature   conf_id	  bcc25
 Feature   mindist	2.868120
END_CFG

BEGIN_CFG
 Size
    4
 Supercell
         3.465880      0.000000      0.000000
         0.000000      4.832764      0.000000
         0.000016      0.000000      4.907059
 AtomData:  id type       cartes_x      cartes_y      cartes_z           fx          fy          fz
             1    1       3.032664      4.832764      4.464370    -0.000000    0.000000    0.004987
             2    1       3.032643      2.416382      1.669451     0.000000    0.000000   -0.004987
             3    2       1.299702      0.000000      1.984951     0.000000    0.000000    0.013054
             4    2       1.299721      2.416389      4.148875    -0.000000    0.000000   -0.013054
 Energy
        -12.777783540000
 PlusStress:  xx          yy          zz          yz          xz          xy
        -0.05095    -0.03816    -0.04375     0.00000     0.00000     0.00000
 Feature   EFS_by	VASP
 Feature   conf_id	  bcc97
 Feature   mindist	2.982698
END_CFG

BEGIN_CFG
 Size
    5
 Supercell
         3.146481      0.000000      0.000000
         0.000055      3.318267      0.000000
        -1.573196     -1.608542     10.651681
 AtomData:  id type       cartes_x      cartes_y      cartes_z           fx          fy          fz
             1    1       0.000011      0.003272      0.169263    -0.000000    0.005920   -0.000314
             2    1       0.000025      0.016965      4.091404     0.000000   -0.005920    0.000314
             3    2       1.573289      1.669250      2.130329     0.000000    0.000000    0.000000
             4    2       1.573333      1.677617      6.174068    -0.000000   -0.021073   -0.005715
             5    2       0.000040      0.052349      8.738272     0.000000    0.021073    0.005715
 Energy
        -16.483938960000
 PlusStress:  xx          yy          zz          yz          xz          xy
        -0.00851    -0.10357    -0.05948     0.00036     0.00000    -0.00000
 Feature   EFS_by	VASP
 Feature   conf_id	  bcc265
 Feature   mindist	3.008466
END_CFG

BEGIN_CFG
 Size
    5
 Supercell
         4.272913      0.000000      0.000000
         2.136453      4.997402      0.000000
        -2.136431     -0.227591      4.684554
 AtomData:  id type       cartes_x      cartes_y      cartes_z           fx          fy          fz
             1    1       2.136469     -0.127152      4.654456     0.000000    0.003718   -0.002773
             2    1       2.136464      1.953443      0.936902     0.000000   -0.000000    0.000000
             3    1       4.272923      3.806437      1.903912    -0.000000   -0.003718    0.002773
             4    2       0.000010      0.833021      2.761888     0.000000    0.007541    0.003271
             5    2       2.136470      2.846270      3.796468    -0.000000   -0.007541   -0.003271
 Energy
        -15.090144680000
 PlusStress:  xx          yy          zz          yz          xz          xy
         0.00448     0.03585     0.07673    -0.00090    -0.00000    -0.00000
 Feature   EFS_by	VASP
 Feature   conf_id	  bcc289
 Feature   mindist	2.886497
END_CFG

BEGIN_CFG
 Size
    6
 Supercell
         4.150681      0.000000      0.000000
         0.000000      4.086769      0.000000
         2.075321      0.000000      5.705665
 AtomData:  id type       cartes_x      cartes_y      cartes_z           fx          fy          fz
             1    0       0.518825      0.000000      0.402576     0.000000    0.000000    0.005203
             2    0       2.594186      2.043390      0.548361    -0.000000    0.000000   -0.005203
             3    1       2.594177      0.000000      2.221313    -0.000000    0.000000    0.003152
             4    1       2.594164      2.043390      4.435293     0.000000    0.000000   -0.003152
             5    2       4.669520      2.043383      1.958175     0.000001    0.000000   -0.012621
             6    2       4.669501      0.000000      4.698434    -0.000001    0.000000    0.012621
 Energy
        -26.300886750000
 PlusStress:  xx          yy          zz          yz          xz          xy
        -0.17950    -0.12121    -0.17676     0.00000    -0.00000     0.00000
 Feature   EFS_by	VASP
 Feature   conf_id	  bcc553
 Feature   mindist	2.508891
END_CFG

BEGIN_CFG
 Size
    6
 Supercell
         4.679448      0.000000      0.000000
         0.000000      5.720011      0.000000
        -2.339724      0.000000      4.052521
 AtomData:  id type       cartes_x      cartes_y      cartes_z           fx          fy          fz
             1    1       0.000000      0.187113      0.000000     0.000000    0.006895    0.000000
             2    1       0.000000      0.503894      2.701681     0.000000   -0.004917   -0.000000
             3    1       2.339724      1.906670      1.350841     0.000000    0.000000    0.000000
             4    1       0.000000      3.309447      0.000000     0.000000    0.004917    0.000000
             5    1       0.000000      3.626227      2.701681     0.000000   -0.006895    0.000000
             6    2       2.339717      4.766679      1.350836     0.000000    0.000000    0.000000
 Energy
        -15.082854160000
 PlusStress:  xx          yy          zz          yz          xz          xy
         0.00232     0.02518     0.00232     0.00000    -0.00000     0.00000
 Feature   EFS_by	VASP
 Feature   conf_id	  bcc1009
 Feature   mindist	2.597677
END_CFG

BEGIN_CFG
 Size
    7
 Supercell
         4.233412      0.000000      0.000000
         2.116696      3.666245      0.000000
        -2.116694      1.222128      9.020690
 AtomData:  id type       cartes_x      cartes_y      cartes_z           fx          fy          fz
             1    0       2.116717      1.222125      7.854211     0.000000   -0.000001   -0.002160
             2    0       2.116717      1.222088      2.455161    -0.000000    0.000001    0.002160
             3    1       2.116710      1.222106      5.154685     0.000000   -0.000000    0.000000
             4    2       4.233402      2.444175      3.507489    -0.000000   -0.000001   -0.008661
             5    2       2.116704      3.666254      1.561851     0.000000   -0.000000    0.004132
             6    2       0.000009      2.444214      8.747498    -0.000000    0.000000   -0.004132
             7    2       2.116712      3.666291      6.801871     0.000000    0.000001    0.008661
 Energy
        -31.868758990000
 PlusStress:  xx          yy          zz          yz          xz          xy
        -0.03443    -0.03442    -0.12388     0.00000    -0.00000    -0.00001
 Feature   EFS_by	VASP
 Feature   conf_id	  bcc1633
 Feature   mindist	2.602280
END_CFG

BEGIN_CFG
 Size
    7
 Supercell
         4.299957      0.000000      0.000000
         2.149534      3.724986      0.000000
        -2.149710      1.243393      6.632487
 AtomData:  id type       cartes_x      cartes_y      cartes_z           fx          fy          fz
             1    0       2.150306      1.243500      6.618471    -0.000248   -0.000197   -0.002516
             2    0       4.299722      2.483724      1.909007     0.000248    0.000197    0.002516
             3    1       2.149893      1.241909      0.947491     0.000000    0.000000    0.000000
             4    1       2.150075      1.242694      3.843197    -0.000039   -0.000009   -0.023637
             5    1       0.000006      2.484519      4.684279     0.000039    0.000009    0.023637
             6    2       2.149626      3.725755      2.544794     0.000027   -0.000052   -0.017800
             7    2       2.149992      3.726438      5.982681    -0.000027    0.000052    0.017800
 Energy
        -28.767397560000
 PlusStress:  xx          yy          zz          yz          xz          xy
        -0.17109    -0.17269    -0.18426     0.00026     0.00023    -0.00032
 Feature   EFS_by	VASP
 Feature   conf_id	  bcc1729
 Feature   mindist	2.558810
END_CFG

BEGIN_CFG
 Size
    7
 Supercell
         4.696873      0.000000      0.000000
        -2.348404      4.067634      0.000000
         2.348377      1.355881      6.830071
 AtomData:  id type       cartes_x      cartes_y      cartes_z           fx          fy          fz
             1    1       2.348378      1.355892      6.797217    -0.000000    0.000000   -0.000740
             2    1       2.348440      1.355896      0.748810    -0.000000   -0.000000   -0.009282
             3    1       0.000002      2.711753      1.818766    -0.000000   -0.000000    0.001352
             4    1       2.348440      4.067636      3.059862     0.000000    0.000000   -0.001352
             5    1       2.348400      1.355869      4.129821     0.000000    0.000000    0.009282
             6    1       4.696832      2.711744      4.911465     0.000000   -0.000000    0.000740
             7    2       2.348407      4.067631      5.854340     0.000000    0.000000    0.000000
 Energy
        -16.956909890000
 PlusStress:  xx          yy          zz          yz          xz          xy
         0.00389     0.00390     0.00862     0.00000     0.00000    -0.00000
 Feature   EFS_by	VASP
 Feature   conf_id	  bcc2161
 Feature   mindist	2.667396
END_CFG

BEGIN_CFG
 Size
    7
 Supercell
         4.715091      0.000000      0.000000
         2.342771      4.085375      0.000000
         2.323069     -1.360933      6.591081
 AtomData:  id type       cartes_x      cartes_y      cartes_z           fx          fy          fz
             1    1       4.714179     -0.000233      0.003903     0.000076   -0.000051   -0.001550
             2    1       4.699618      2.723706      0.941585     0.000000    0.000000    0.000000
             3    1       2.342266      1.362267      1.879255    -0.000076    0.000051    0.001550
             4    1       4.682511      2.723812      3.816676     0.002031   -0.000169    0.006213
             5    1       7.039787      1.362670      4.657562    -0.002031    0.000169   -0.006213
             6    2       4.697257      0.000094      2.777364    -0.000260   -0.000036    0.013237
             7    2       4.682279      0.001009      5.696879     0.000260    0.000036   -0.013237
 Energy
        -20.007663170000
 PlusStress:  xx          yy          zz          yz          xz          xy
        -0.00767    -0.00808    -0.07804     0.00230    -0.02203    -0.01751
 Feature   EFS_by	VASP
 Feature   conf_id	  bcc2185
 Feature   mindist	2.773509
END_CFG

BEGIN_CFG
 Size
    7
 Supercell
         5.272944      0.000000      0.000000
         1.740296      3.914656      0.000000
         0.646215     -0.287271      6.849123
 AtomData:  id type       cartes_x      cartes_y      cartes_z           fx          fy          fz
             1    1       2.468740      3.590828      6.735122     0.004654   -0.002069   -0.001407
             2    1       4.266255      2.791708      1.092447    -0.004654    0.002069    0.001407
             3    1       4.244432      0.457244      2.938433     0.000718   -0.000319    0.002552
             4    1       6.023226      2.010639      4.889138    -0.000718    0.000319   -0.002552
             5    2       1.534937      1.661771      1.842068    -0.003901    0.001734   -0.003374
             6    2       3.367509      3.191268      3.913784     0.000000    0.000000    0.000000
             7    2       3.459774      0.806104      5.985505     0.003901   -0.001734    0.003374
 Energy
        -21.521523810000
 PlusStress:  xx          yy          zz          yz          xz          xy
         0.03065     0.03630     0.01325     0.00193    -0.00433     0.00313
 Feature   EFS_by	VASP
 Feature   conf_id	  bcc2209
 Feature   mindist	2.880707
END_CFG

BEGIN_CFG
 Size
    8
 Supercell
         3.264648      0.000000      0.000000
         0.000000      3.264648      0.000000
         0.000000      0.000000     18.228181
 AtomData:  id type       cartes_x      cartes_y      cartes_z           fx          fy          fz
             1    1       0.000000      0.000000      0.339340     0.000000    0.000000   -0.000956
             2    1       0.000000      0.000000      4.217710     0.000000   -0.000000    0.000956
             3    2       1.632330      1.632330      2.278530     0.000000    0.000000    0.000000
             4    2       1.632330      1.632330      6.250440     0.000000    0.000000    0.013156
             5    2       0.000000      0.000000      8.800460     0.000000    0.000000   -0.011587
             6    2       1.632330      1.632330     11.392640    -0.000000    0.000000   -0.000000
             7    2       0.000000      0.000000     13.984800     0.000000    0.000000    0.011587
             8    2       1.632330      1.632330     16.534850    -0.000000    0.000000   -0.013156
 Energy
        -27.813602800000
 PlusStress:  xx          yy          zz          yz          xz          xy
         0.04450     0.04450    -0.15587     0.00000     0.00000     0.00000
 Feature   EFS_by	VASP
 Feature   conf_id	  bcc6121
 Feature   mindist	3.014854
END_CFG

BEGIN_CFG
 Size
    9
 Supercell
         4.465424      0.000000      0.000000
        -0.006519      7.028434      0.000000
         2.230621     -1.451130      5.000045
 AtomData:  id type       cartes_x      cartes_y      cartes_z           fx          fy          fz
             1    0       4.465013      0.727111      0.040396     0.000636   -0.008191    0.000908
             2    1       4.462977     -0.185837      3.394288    -0.000185    0.005536   -0.016211
             3    1       4.461884      2.404805      2.157672    -0.000037    0.003589    0.001342
             4    1       2.229291      3.066695      0.682607    -0.000268    0.012375    0.004108
             5    1       4.459549      5.314835      1.073385    -0.000068   -0.027662    0.006898
             6    1       4.459040      4.017651      4.367769    -0.000304    0.019904   -0.000080
             7    2       2.232151      0.447520      1.254220     0.000382    0.001145    0.003085
             8    2       2.227295      1.710747      4.082071    -0.000052   -0.007403   -0.002786
             9    2       2.226357      4.805672      2.947776    -0.000106    0.000707    0.002734
 Energy
        -30.472724310000
 PlusStress:  xx          yy          zz          yz          xz          xy
         0.01361    -0.02808    -0.00038    -0.00580     0.00051     0.00145
 Feature   EFS_by	VASP
 Feature   conf_id	  bcc20545
 Feature   mindist	2.556535
END_CFG

BEGIN_CFG
 Size
    9
 Supercell
         3.102946      0.000000      0.000000
         0.008176      6.147416      0.000000
         0.003382      1.770765     11.511078
 AtomData:  id type       cartes_x      cartes_y      cartes_z           fx          fy          fz
             1    0       2.920642      0.739445      0.019120     0.004729    0.015007   -0.001149
             2    1       2.981696      5.389103      4.600728    -0.011380    0.002215    0.005198
             3    2       1.341728      2.618405      1.263994     0.020331   -0.003881   -0.016078
             4    2       1.398198      5.656414      1.926326    -0.005273    0.008636    0.008316
             5    2       1.391232      1.959818      4.259321    -0.001284   -0.000356    0.001747
             6    2       1.452764      3.845745      6.726764    -0.014996   -0.014126   -0.011828
             7    2       1.310580      6.929361      7.178765     0.015024    0.002179   -0.005098
             8    2       1.404041      3.839823      9.747790    -0.015318   -0.005134    0.017970
             9    2       1.368251      6.842029     10.321631     0.008167   -0.004538    0.000925
 Energy
        -36.166856490000
 PlusStress:  xx          yy          zz          yz          xz          xy
         0.05769     0.03071     0.07301     0.02347    -0.01213    -0.00008
 Feature   EFS_by	VASP
 Feature   conf_id	  bcc21433
 Feature   mindist	2.669370
END_CFG

BEGIN_CFG
 Size
    9
 Supercell
         4.666379      0.000000      0.000000
        -2.333164      4.041207      0.000000
        -0.000078      0.000000      8.464246
 AtomData:  id type       cartes_x      cartes_y      cartes_z           fx          fy          fz
             1    1       4.666284      0.000010      8.368736    -0.000000    0.000000    0.001354
             2    1       2.333176      1.347083      0.760621     0.000000    0.000000    0.000338
             3    1       0.000015      2.694114      2.060794    -0.000000   -0.000000   -0.000338
             4    1      -2.333170      4.041195      2.916922     0.000000   -0.000000   -0.001354
             5    1      -0.000017      2.694123      4.769155     0.000000   -0.000000    0.007166
             6    1       2.333165      4.041198      5.642831     0.000000   -0.000000    0.000000
             7    1       2.333123      1.347069      6.516497    -0.000000    0.000000   -0.007166
             8    2       2.333180      1.347068      3.639438     0.000000    0.000000   -0.009309
             9    2      -0.000066      2.694138      7.646230    -0.000000   -0.000000    0.009309
 Energy
        -24.447620780000
 PlusStress:  xx          yy          zz          yz          xz          xy
         0.00122     0.00121     0.03551     0.00000     0.00000    -0.00000
 Feature   EFS_by	VASP
 Feature   conf_id	  bcc21553
 Feature   mindist	2.708361
END_CFG

BEGIN_CFG
 Size
    9
 Supercell
         3.332575      0.000000      0.000000
        -0.007540      3.332567      0.000000
        -1.629361     -1.633052     21.193010
 AtomData:  id type       cartes_x      cartes_y      cartes_z           fx          fy          fz
             1    1      -1.629360     -1.633051     21.193009     0.000000    0.000000    0.000000
             2    2       1.664043      1.667812      1.909385    -0.002173   -0.002178   -0.005815
             3    2       0.005640      0.005652      4.361034    -0.000075   -0.000075   -0.002443
             4    2       1.674496      1.678289      6.847542    -0.000850   -0.000852   -0.000384
             5    2       0.016849      0.016887      9.360531     0.001808    0.001812    0.001622
             6    2       1.678824      1.682626     11.832522    -0.001808   -0.001812   -0.001622
             7    2       0.021169      0.021217     14.345511     0.000850    0.000852    0.000384
             8    2       1.690041      1.693869     16.832076     0.000075    0.000075    0.002443
             9    2       0.031630      0.031701     19.283668     0.002173    0.002178    0.005815
 Energy
        -32.763486650000
 PlusStress:  xx          yy          zz          yz          xz          xy
         0.11477     0.11460     0.21730    -0.04695    -0.04685    -0.03808
 Feature   EFS_by	VASP
 Feature   conf_id	  bcc21889
 Feature   mindist	3.029170
END_CFG

BEGIN_CFG
 Size
    10
 Supercell
         3.553900      0.000000      0.000000
         0.000000      3.555393      0.000000
        -1.776932      0.000000      8.902333
 AtomData:  id type       cartes_x      cartes_y      cartes_z           fx          fy          fz
             1    0       0.000011      0.000000      0.180532    -0.000000    0.000000   -0.013881
             2    0       1.776957      0.000007      1.813938     0.000000    0.000000    0.014473
             3    0       0.000010      0.000000      3.527459    -0.000000    0.000000   -0.014473
             4    0       1.776956      0.000000      5.160872     0.000000    0.000000    0.013881
             5    0       0.000015      0.000000      7.121874     0.000000    0.000000    0.000000
             6    0       1.776956      1.777695      0.181248     0.000000    0.000000   -0.017434
             7    0       0.000007      1.777702      1.830776     0.000000    0.000000    0.014306
             8    0       1.776950      1.777702      3.510629    -0.000000    0.000000   -0.014306
             9    0       0.000011      1.777695      5.160156    -0.000000    0.000000    0.017434
            10    2       1.776968      1.777709      7.121868     0.000000    0.000000    0.000000
 Energy
        -65.142262880000
 PlusStress:  xx          yy          zz          yz          xz          xy
        -0.24516    -0.20823    -0.16870     0.00000    -0.00001     0.00000
 Feature   EFS_by	VASP
 Feature   conf_id	  bcc23833
 Feature   mindist	2.413618
END_CFG

BEGIN_CFG
 Size
    10
 Supercell
         4.151648      0.000000      0.000000
         0.000010      5.316527      0.000000
        -2.075782      0.000002      6.160321
 AtomData:  id type       cartes_x      cartes_y      cartes_z           fx          fy          fz
             1    0      -0.000008      4.784883      0.495335     0.000000    0.000000    0.001029
             2    0       0.000044      3.529081      2.618251     0.000000   -0.009771   -0.015716
             3    0       0.000040      2.126614      4.928255     0.000000    0.000000    0.000000
             4    0       2.075808      0.724147      1.077936    -0.000000    0.009771    0.015716
             5    0       2.075866      4.784875      3.200852    -0.000000   -0.000000   -0.001029
             6    0       0.000036      0.724141      2.618270     0.000000    0.009771   -0.015716
             7    0       2.075822      3.529084      1.077930    -0.000000   -0.009771    0.015716
             8    2      -0.000010      2.126620      0.344520    -0.000000    0.000000   -0.001502
             9    2       0.000036      4.784888      4.928256     0.000000    0.000000    0.000000
            10    2       2.075863      2.126612      3.351677     0.000000   -0.000000    0.001502
 Energy
        -59.578268910000
 PlusStress:  xx          yy          zz          yz          xz          xy
         0.07098    -0.03043     0.10313     0.00000     0.00000     0.00000
 Feature   EFS_by	VASP
 Feature   conf_id	  bcc25273
 Feature   mindist	2.466537
END_CFG

BEGIN_CFG
 Size
    10
 Supercell
         4.181803      0.000000      0.000000
         2.089429      6.141395      0.000000
         0.000011     -0.000001      5.385563
 AtomData:  id type       cartes_x      cartes_y      cartes_z           fx          fy          fz
             1    0       2.090300      5.968094      0.853624     0.000092    0.001543   -0.003150
             2    0       2.088000      3.711020      4.847001     0.000312    0.001246    0.000000
             3    0       2.089643      1.412999      0.867490     0.000188    0.000558   -0.000020
             4    0       4.181768      1.848518      2.154225     0.000247   -0.005073   -0.000000
             5    0       2.090302      5.968101      3.454830     0.000092    0.001544    0.003150
             6    0       2.089641      1.413005      3.440955     0.000188    0.000558    0.000020
             7    1       4.182054      5.422136      2.154222    -0.001279    0.005870    0.000000
             8    2       2.091523      3.655579      2.154227    -0.001001   -0.003674   -0.000001
             9    2       4.180583      5.321797      4.847013     0.001008    0.002116    0.000000
            10    2       4.180023      2.127135      4.847006     0.000153   -0.004686   -0.000000
 Energy
        -55.000012040000
 PlusStress:  xx          yy          zz          yz          xz          xy
        -0.21308    -0.22449    -0.20357    -0.00000     0.00000     0.00583
 Feature   EFS_by	VASP
 Feature   conf_id	  bcc28897
 Feature   mindist	2.404017
END_CFG

BEGIN_CFG
 Size
    10
 Supercell
         4.151754      0.000000      0.000000
        -2.075877      6.160867      0.000000
        -0.000003      0.000000      5.316572
 AtomData:  id type       cartes_x      cartes_y      cartes_z           fx          fy          fz
             1    0       2.075877      6.006822      0.339427    -0.000000    0.015152   -0.008966
             2    0       2.075881      1.386225      0.339438    -0.000000   -0.015152   -0.008966
             3    0      -0.000012      1.969057      1.594973    -0.000001   -0.000210   -0.000000
             4    0       0.000004      5.423990      1.594971     0.000001    0.000210    0.000000
             5    0       2.075880      6.006830      2.850508     0.000000    0.015152    0.008966
             6    0       2.075875      1.386217      2.850507     0.000000   -0.015152    0.008966
             7    0       2.075875      3.696525      4.253252     0.000000   -0.000000    0.000000
             8    2       2.075871      3.696521      1.594968     0.000000    0.000000   -0.000000
             9    2      -0.000008      2.119956      4.253258     0.000000   -0.000778   -0.000000
            10    2      -0.000005      5.273094      4.253244    -0.000000    0.000778    0.000000
 Energy
        -59.577940240000
 PlusStress:  xx          yy          zz          yz          xz          xy
         0.07200     0.09639    -0.03708    -0.00000     0.00000    -0.00000
 Feature   EFS_by	VASP
 Feature   conf_id	  bcc34537
 Feature   mindist	2.466556
END_CFG

BEGIN_CFG
 Size
    10
 Supercell
         4.233719      0.000000      0.000000
         0.000000      4.277144      0.000000
         0.000000     -2.138563      8.300642
 AtomData:  id type       cartes_x      cartes_y      cartes_z           fx          fy          fz
             1    0       0.000007      3.528642      0.531184     0.000000    0.000000    0.006859
             2    0       0.000007     -0.748486      3.584881     0.000000    0.000001    0.004270
             3    0       2.116866      1.390073      3.600816     0.000000   -0.000000    0.011850
             4    1       2.116866      1.390078      0.610954     0.000000    0.000000    0.009857
             5    1       2.116866      3.528643      2.116688     0.000000   -0.000000    0.002536
             6    1       0.000000      1.390086      5.207166     0.000000   -0.000000    0.004743
             7    1       0.000007     -0.748487      7.171472     0.000000    0.000000   -0.005512
             8    2       0.000007      1.390079      2.142371     0.000000    0.000000   -0.018507
             9    2       2.116858     -0.748510      5.026531     0.000000    0.000000   -0.005004
            10    2       2.116866      1.390081      7.360863     0.000000    0.000000   -0.011094
 Energy
        -41.633015970000
 PlusStress:  xx          yy          zz          yz          xz          xy
        -0.07343    -0.06073    -0.07608     0.00000     0.00000     0.00000
 Feature   EFS_by	VASP
 Feature   conf_id	  bcc59377
 Feature   mindist	2.561135
END_CFG

BEGIN_CFG
 Size
    10
 Supercell
         4.363892      0.000000      0.000000
         2.181937      3.779242      0.000000
        -0.000060      0.000034     10.798034
 AtomData:  id type       cartes_x      cartes_y      cartes_z           fx          fy          fz
             1    0       2.290986      3.716280     10.094739     0.000000   -0.000000   -0.037175
             2    0       2.291048      1.196771      2.646842     0.000000    0.000000    0.016796
             3    0       4.472932      2.456538      6.525849     0.000000    0.000000   -0.006194
             4    1       4.472992      2.456504      1.238877     0.000000   -0.000001   -0.000424
             5    1       4.472968      2.456545      3.919409    -0.000000    0.000000   -0.001457
             6    2       2.291040      3.716261      2.520001     0.000000   -0.000000   -0.000849
             7    2       2.291002      1.196788      5.296633    -0.000000   -0.000000    0.009029
             8    2       2.290979      3.716284      7.207469     0.000000   -0.000000    0.005803
             9    2       4.472921      2.456530      9.078101    -0.000000    0.000000    0.031996
            10    2       2.291040      1.196748      0.063239    -0.000000   -0.000000   -0.017526
 Energy
        -45.284365930000
 PlusStress:  xx          yy          zz          yz          xz          xy
        -0.11683    -0.11682    -0.07573     0.00000     0.00000    -0.00000
 Feature   EFS_by	VASP
 Feature   conf_id	  bcc60481
 Feature   mindist	2.522681
END_CFG

BEGIN_CFG
 Size
    10
 Supercell
         4.372986      0.000000      0.000000
         2.186487      8.254281      0.000000
         0.000087     -0.000041      4.353034
 AtomData:  id type       cartes_x      cartes_y      cartes_z           fx          fy          fz
             1    0       4.373050      0.706385      3.917746    -0.000000   -0.007128    0.000000
             2    0       4.373019      5.845058      1.741195    -0.000000    0.002310    0.000000
             3    1       2.186551      5.981052      3.917734     0.000000    0.003718   -0.000000
             4    1       2.186552      0.627740      1.741206     0.000000   -0.006236    0.000000
             5    1       4.373037      2.392307      1.741200     0.000001    0.007325   -0.000000
             6    1       2.186510      4.283936      1.741215     0.000000   -0.000915    0.000000
             7    1       4.373056      7.432269      3.917722     0.000000    0.000012   -0.000000
             8    2       2.186537      7.408952      1.741216    -0.000000    0.010487   -0.000000